<VTKFile type="UnstructuredGrid">
<UnstructuredGrid>
<Piece NumberOfPoints="18" NumberOfCells="61">
<PointData Scalars="coordinate_index"><DataArray type="Int32" Name="coordinate_index">
0
1
2
3
4
5
6
7
8
9
10
11
12
13
14
15
16
17
</DataArray></PointData>
<CellData Scalars="element_index mpi_domain boundary"><DataArray type="Int32" Name="element_index">
0
1
2
3
4
5
6
7
8
9
10
11
12
13
14
15
16
17
18
19
20
21
22
23
24
25
26
27
28
-1
-1
-1
-1
-1
-1
-1
-1
-1
-1
-1
-1
-1
-1
-1
-1
-1
-1
-1
-1
-1
-1
-1
-1
-1
-1
-1
-1
-1
-1
-1
-1
</DataArray><DataArray type="Int32" Name="mpi_domain">
0
0
0
0
0
0
0
2
0
1
1
2
1
1
1
1
2
2
2
2
2
2
2
2
2
2
2
2
2
-1
-1
-1
-1
-1
-1
-1
-1
-1
-1
-1
-1
-1
-1
-1
-1
-1
-1
-1
-1
-1
-1
-1
-1
-1
-1
-1
-1
-1
-1
-1
-1
</DataArray><DataArray type="Int8" Name="boundary">
-1
-1
-1
-1
-1
-1
-1
-1
-1
-1
-1
-1
-1
-1
-1
-1
-1
-1
-1
-1
-1
-1
-1
-1
-1
-1
-1
-1
-1
1
1
1
1
1
1
1
1
1
1
5
5
5
5
5
5
5
5
5
5
5
5
5
5
5
5
5
5
5
5
5
5
</DataArray></CellData>
<Points><DataArray type="Float32" NumberOfComponents="3" format="ascii">
-0.425748 1.916918 -0.301427
1.0 -1.0 1.0
1.654665 -0.037819 -1.175408
-1.0 -1.0 -1.0
0.979847 1.080608 0.161041
0.521648 1.119589 1.414272
-1.0 1.0 1.0
-0.535909 1.054034 -1.886382
1.206686 1.980328 -1.829298
0.446451 2.217973 -0.412981
-1.466428 0.351325 -0.693204
-1.156752 1.191873 -0.611953
-1.586867 -0.396281 0.942208
0.736185 -0.51862 2.084636
1.560285 -0.869881 1.500153
0.889245 -1.25618 1.768047
-0.044698 -1.244799 1.23641
1.193031 0.427285 1.335321
</DataArray></Points>
<Cells><DataArray type="Int32" Name="connectivity">
1 3 6 4
1 4 6 5
1 2 3 4
1 4 5 13
1 5 6 13
0 3 4 6
0 4 5 6
1 3 12 6
1 2 4 14
2 3 4 7
0 3 7 4
0 3 6 7
0 8 4 7
8 2 4 7
8 0 4 9
0 9 5 4
0 11 7 6
10 3 7 6
10 3 6 12
10 11 6 7
16 1 3 12
1 12 13 6
1 12 15 13
17 4 13 5
1 4 13 14
1 13 15 14
17 4 14 13
17 2 14 4
16 1 12 15
2 1 3
2 3 7
8 2 7
2 8 4
0 8 7
4 8 9
8 0 9
5 0 6
9 0 5
9 5 4
3 10 7
10 11 7
11 0 7
11 10 6
0 11 6
6 10 12
10 3 12
12 13 6
5 6 13
1 2 14
13 15 14
15 1 14
12 15 13
16 1 15
12 16 15
1 16 3
3 16 12
14 17 13
17 2 4
2 17 14
17 4 5
13 17 5
</DataArray><DataArray type="Int32" Name="offsets">
4
8
12
16
20
24
28
32
36
40
44
48
52
56
60
64
68
72
76
80
84
88
92
96
100
104
108
112
116
119
122
125
128
131
134
137
140
143
146
149
152
155
158
161
164
167
170
173
176
179
182
185
188
191
194
197
200
203
206
209
212
</DataArray><DataArray type="UInt8" Name="types">
10
10
10
10
10
10
10
10
10
10
10
10
10
10
10
10
10
10
10
10
10
10
10
10
10
10
10
10
10
5
5
5
5
5
5
5
5
5
5
5
5
5
5
5
5
5
5
5
5
5
5
5
5
5
5
5
5
5
5
5
5
</DataArray></Cells>
</Piece>
</UnstructuredGrid>
</VTKFile>
